Program Version,EnergyPlus, Version 22.1.0-ed759b17ee, YMD=2022.05.26 15:16
1,5,Environment Title[],Latitude[deg],Longitude[deg],Time Zone[],Elevation[m]
2,8,Day of Simulation[],Month[],Day of Month[],DST Indicator[1=yes 0=no],Hour[],StartMinute[],EndMinute[],DayType
3,5,Cumulative Day of Simulation[],Month[],Day of Month[],DST Indicator[1=yes 0=no],DayType  ! When Daily Meters Requested
4,2,Cumulative Days of Simulation[],Month[]  ! When Monthly Meters Requested
5,1,Cumulative Days of Simulation[] ! When Run Period Meters Requested
6,1,Calendar Year of Simulation[] ! When Annual Meters Requested
198,1,InteriorLights:Electricity [J] !Hourly
1030,1,InteriorEquipment:Electricity [J] !Hourly
End of Data Dictionary
1,RUNPERIOD 1,  39.74,-105.18,  -7.00,1829.00
2,1, 1, 1, 0, 1, 0.00,60.00,Holiday
198,36464788.34797145
1030,746122165.6661774
2,1, 1, 1, 0, 2, 0.00,60.00,Holiday
198,36464788.34797145
1030,746122165.6661774
2,1, 1, 1, 0, 3, 0.00,60.00,Holiday
198,36464788.34797145
1030,746122165.6661774
2,1, 1, 1, 0, 4, 0.00,60.00,Holiday
198,36464788.34797145
1030,746122165.6661774
2,1, 1, 1, 0, 5, 0.00,60.00,Holiday
198,36464788.34797145
1030,746122165.6661774
2,1, 1, 1, 0, 6, 0.00,60.00,Holiday
198,36464788.34797145
1030,746122165.6661774
2,1, 1, 1, 0, 7, 0.00,60.00,Holiday
198,48092070.92212643
1030,824394452.0555365
2,1, 1, 1, 0, 8, 0.00,60.00,Holiday
198,48903468.63444715
1030,824394452.0555365
2,1, 1, 1, 0, 9, 0.00,60.00,Holiday
198,44734127.06664909
1030,824394452.0555365
2,1, 1, 1, 0,10, 0.00,60.00,Holiday
198,45060566.26226646
1030,824394452.0555365
2,1, 1, 1, 0,11, 0.00,60.00,Holiday
198,44734127.06664909
1030,824394452.0555365
2,1, 1, 1, 0,12, 0.00,60.00,Holiday
198,44734127.06664909
1030,824394452.0555365
2,1, 1, 1, 0,13, 0.00,60.00,Holiday
198,44734127.06664909
1030,824394452.0555365
2,1, 1, 1, 0,14, 0.00,60.00,Holiday
198,44734127.06664909
1030,824394452.0555365
2,1, 1, 1, 0,15, 0.00,60.00,Holiday
198,45401182.76961151
1030,824394452.0555365
2,1, 1, 1, 0,16, 0.00,60.00,Holiday
198,45914645.57597572
1030,824394452.0555365
2,1, 1, 1, 0,17, 0.00,60.00,Holiday
198,50185713.955208674
1030,824394452.0555365
2,1, 1, 1, 0,18, 0.00,60.00,Holiday
198,52015360.4193784
1030,824394452.0555365
2,1, 1, 1, 0,19, 0.00,60.00,Holiday
198,41707937.258317545
1030,746122165.6661774
2,1, 1, 1, 0,20, 0.00,60.00,Holiday
198,36464788.34797145
1030,746122165.6661774
2,1, 1, 1, 0,21, 0.00,60.00,Holiday
198,36464788.34797145
1030,746122165.6661774
2,1, 1, 1, 0,22, 0.00,60.00,Holiday
198,36464788.34797145
1030,746122165.6661774
2,1, 1, 1, 0,23, 0.00,60.00,Holiday
198,36464788.34797145
1030,746122165.6661774
2,1, 1, 1, 0,24, 0.00,60.00,Holiday
198,36464788.34797145
1030,746122165.6661774
2,2, 1, 2, 0, 1, 0.00,60.00,Monday
198,36464788.34797145
1030,836730825.2177298
2,2, 1, 2, 0, 2, 0.00,60.00,Monday
198,36464788.34797145
1030,836730825.2177298
2,2, 1, 2, 0, 3, 0.00,60.00,Monday
198,36464788.34797145
1030,836730825.2177298
2,2, 1, 2, 0, 4, 0.00,60.00,Monday
198,36464788.34797145
1030,836730825.2177298
2,2, 1, 2, 0, 5, 0.00,60.00,Monday
198,36464788.34797145
1030,836730825.2177298
2,2, 1, 2, 0, 6, 0.00,60.00,Monday
198,37975250.63110626
1030,836730825.2177298
2,2, 1, 2, 0, 7, 0.00,60.00,Monday
198,87445560.3280437
1030,941093873.736875
2,2, 1, 2, 0, 8, 0.00,60.00,Monday
198,297228111.6642113
1030,941093873.736875
2,2, 1, 2, 0, 9, 0.00,60.00,Monday
198,810789611.958758
1030,1524590982.1435688
2,2, 1, 2, 0,10, 0.00,60.00,Monday
198,810486028.8633693
1030,1524590982.1435688
2,2, 1, 2, 0,11, 0.00,60.00,Monday
198,806484840.0294733
1030,1524590982.1435688
2,2, 1, 2, 0,12, 0.00,60.00,Monday
198,805214287.1996835
1030,1524590982.1435688
2,2, 1, 2, 0,13, 0.00,60.00,Monday
198,805214287.1996835
1030,1407891560.4622302
2,2, 1, 2, 0,14, 0.00,60.00,Monday
198,808036544.1257861
1030,1524590982.1435688
2,2, 1, 2, 0,15, 0.00,60.00,Monday
198,805214287.1996835
1030,1524590982.1435688
2,2, 1, 2, 0,16, 0.00,60.00,Monday
198,844201598.4548233
1030,1524590982.1435688
2,2, 1, 2, 0,17, 0.00,60.00,Monday
198,905388962.4912078
1030,1524590982.1435688
2,2, 1, 2, 0,18, 0.00,60.00,Monday
198,520153604.193784
1030,1057793295.4182141
2,2, 1, 2, 0,19, 0.00,60.00,Monday
198,312092162.51627046
1030,941093873.736875
2,2, 1, 2, 0,20, 0.00,60.00,Monday
198,312092162.51627046
1030,941093873.736875
2,2, 1, 2, 0,21, 0.00,60.00,Monday
198,208061441.6775136
1030,941093873.736875
2,2, 1, 2, 0,22, 0.00,60.00,Monday
198,208061441.6775136
1030,941093873.736875
2,2, 1, 2, 0,23, 0.00,60.00,Monday
198,104030720.8387568
1030,941093873.736875
2,2, 1, 2, 0,24, 0.00,60.00,Monday
198,52015360.4193784
1030,941093873.736875
2,3, 1, 3, 0, 1, 0.00,60.00,Tuesday
198,41707937.258317545
1030,836730825.2177298
2,3, 1, 3, 0, 2, 0.00,60.00,Tuesday
198,36464788.34797145
1030,836730825.2177298
2,3, 1, 3, 0, 3, 0.00,60.00,Tuesday
198,36464788.34797145
1030,836730825.2177298
2,3, 1, 3, 0, 4, 0.00,60.00,Tuesday
198,36464788.34797145
1030,836730825.2177298
2,3, 1, 3, 0, 5, 0.00,60.00,Tuesday
198,36464788.34797145
1030,836730825.2177298
2,3, 1, 3, 0, 6, 0.00,60.00,Tuesday
198,37975250.63110626
1030,836730825.2177298
2,3, 1, 3, 0, 7, 0.00,60.00,Tuesday
198,87445560.3280437
1030,941093873.736875
2,3, 1, 3, 0, 8, 0.00,60.00,Tuesday
198,296564767.3457603
1030,941093873.736875
2,3, 1, 3, 0, 9, 0.00,60.00,Tuesday
198,807946551.7747127
1030,1524590982.1435688
2,3, 1, 3, 0,10, 0.00,60.00,Tuesday
198,805214287.1996835
1030,1524590982.1435688
2,3, 1, 3, 0,11, 0.00,60.00,Tuesday
198,805214287.1996835
1030,1524590982.1435688
2,3, 1, 3, 0,12, 0.00,60.00,Tuesday
198,805214287.1996835
1030,1524590982.1435688
2,3, 1, 3, 0,13, 0.00,60.00,Tuesday
198,805214287.1996835
1030,1407891560.4622302
2,3, 1, 3, 0,14, 0.00,60.00,Tuesday
198,805214287.1996835
1030,1524590982.1435688
2,3, 1, 3, 0,15, 0.00,60.00,Tuesday
198,805214287.1996835
1030,1524590982.1435688
2,3, 1, 3, 0,16, 0.00,60.00,Tuesday
198,813704263.0195842
1030,1524590982.1435688
2,3, 1, 3, 0,17, 0.00,60.00,Tuesday
198,903931855.3495528
1030,1524590982.1435688
2,3, 1, 3, 0,18, 0.00,60.00,Tuesday
198,520153604.193784
1030,1057793295.4182141
2,3, 1, 3, 0,19, 0.00,60.00,Tuesday
198,312092162.51627046
1030,941093873.736875
2,3, 1, 3, 0,20, 0.00,60.00,Tuesday
198,312092162.51627046
1030,941093873.736875
2,3, 1, 3, 0,21, 0.00,60.00,Tuesday
198,208061441.6775136
1030,941093873.736875
2,3, 1, 3, 0,22, 0.00,60.00,Tuesday
198,208061441.6775136
1030,941093873.736875
2,3, 1, 3, 0,23, 0.00,60.00,Tuesday
198,104030720.8387568
1030,941093873.736875
2,3, 1, 3, 0,24, 0.00,60.00,Tuesday
198,52015360.4193784
1030,941093873.736875
2,4, 1, 4, 0, 1, 0.00,60.00,Wednesday
198,41707937.258317545
1030,836730825.2177298
2,4, 1, 4, 0, 2, 0.00,60.00,Wednesday
198,36464788.34797145
1030,836730825.2177298
2,4, 1, 4, 0, 3, 0.00,60.00,Wednesday
198,36464788.34797145
1030,836730825.2177298
2,4, 1, 4, 0, 4, 0.00,60.00,Wednesday
198,36464788.34797145
1030,836730825.2177298
2,4, 1, 4, 0, 5, 0.00,60.00,Wednesday
198,36464788.34797145
1030,836730825.2177298
2,4, 1, 4, 0, 6, 0.00,60.00,Wednesday
198,37975250.63110626
1030,836730825.2177298
2,4, 1, 4, 0, 7, 0.00,60.00,Wednesday
198,87445560.3280437
1030,941093873.736875
2,4, 1, 4, 0, 8, 0.00,60.00,Wednesday
198,308387294.13156927
1030,941093873.736875
2,4, 1, 4, 0, 9, 0.00,60.00,Wednesday
198,846235626.182602
1030,1524590982.1435688
2,4, 1, 4, 0,10, 0.00,60.00,Wednesday
198,805214287.1996835
1030,1524590982.1435688
2,4, 1, 4, 0,11, 0.00,60.00,Wednesday
198,805214287.1996835
1030,1524590982.1435688
2,4, 1, 4, 0,12, 0.00,60.00,Wednesday
198,810392844.7408993
1030,1524590982.1435688
2,4, 1, 4, 0,13, 0.00,60.00,Wednesday
198,808431478.6540548
1030,1407891560.4622302
2,4, 1, 4, 0,14, 0.00,60.00,Wednesday
198,805214287.1996835
1030,1524590982.1435688
2,4, 1, 4, 0,15, 0.00,60.00,Wednesday
198,805214287.1996835
1030,1524590982.1435688
2,4, 1, 4, 0,16, 0.00,60.00,Wednesday
198,808363006.0860059
1030,1524590982.1435688
2,4, 1, 4, 0,17, 0.00,60.00,Wednesday
198,898808127.2591788
1030,1524590982.1435688
2,4, 1, 4, 0,18, 0.00,60.00,Wednesday
198,520153604.193784
1030,1057793295.4182141
2,4, 1, 4, 0,19, 0.00,60.00,Wednesday
198,312092162.51627046
1030,941093873.736875
2,4, 1, 4, 0,20, 0.00,60.00,Wednesday
198,312092162.51627046
1030,941093873.736875
2,4, 1, 4, 0,21, 0.00,60.00,Wednesday
198,208061441.6775136
1030,941093873.736875
2,4, 1, 4, 0,22, 0.00,60.00,Wednesday
198,208061441.6775136
1030,941093873.736875
2,4, 1, 4, 0,23, 0.00,60.00,Wednesday
198,104030720.8387568
1030,941093873.736875
2,4, 1, 4, 0,24, 0.00,60.00,Wednesday
198,52015360.4193784
1030,941093873.736875
2,5, 1, 5, 0, 1, 0.00,60.00,Thursday
198,41707937.258317545
1030,836730825.2177298
2,5, 1, 5, 0, 2, 0.00,60.00,Thursday
198,36464788.34797145
1030,836730825.2177298
2,5, 1, 5, 0, 3, 0.00,60.00,Thursday
198,36464788.34797145
1030,836730825.2177298
2,5, 1, 5, 0, 4, 0.00,60.00,Thursday
198,36464788.34797145
1030,836730825.2177298
2,5, 1, 5, 0, 5, 0.00,60.00,Thursday
198,36464788.34797145
1030,836730825.2177298
2,5, 1, 5, 0, 6, 0.00,60.00,Thursday
198,37975250.63110626
1030,836730825.2177298
2,5, 1, 5, 0, 7, 0.00,60.00,Thursday
198,87445560.3280437
1030,941093873.736875
2,5, 1, 5, 0, 8, 0.00,60.00,Thursday
198,308389544.3506372
1030,941093873.736875
2,5, 1, 5, 0, 9, 0.00,60.00,Thursday
198,867531178.9984863
1030,1524590982.1435688
2,5, 1, 5, 0,10, 0.00,60.00,Thursday
198,814669189.2565378
1030,1524590982.1435688
2,5, 1, 5, 0,11, 0.00,60.00,Thursday
198,805214287.1996835
1030,1524590982.1435688
2,5, 1, 5, 0,12, 0.00,60.00,Thursday
198,805214287.1996835
1030,1524590982.1435688
2,5, 1, 5, 0,13, 0.00,60.00,Thursday
198,805214287.1996835
1030,1407891560.4622302
2,5, 1, 5, 0,14, 0.00,60.00,Thursday
198,805214287.1996835
1030,1524590982.1435688
2,5, 1, 5, 0,15, 0.00,60.00,Thursday
198,805214287.1996835
1030,1524590982.1435688
2,5, 1, 5, 0,16, 0.00,60.00,Thursday
198,819395366.2323672
1030,1524590982.1435688
2,5, 1, 5, 0,17, 0.00,60.00,Thursday
198,899425921.1540653
1030,1524590982.1435688
2,5, 1, 5, 0,18, 0.00,60.00,Thursday
198,520153604.193784
1030,1057793295.4182141
2,5, 1, 5, 0,19, 0.00,60.00,Thursday
198,312092162.51627046
1030,941093873.736875
2,5, 1, 5, 0,20, 0.00,60.00,Thursday
198,312092162.51627046
1030,941093873.736875
2,5, 1, 5, 0,21, 0.00,60.00,Thursday
198,208061441.6775136
1030,941093873.736875
2,5, 1, 5, 0,22, 0.00,60.00,Thursday
198,208061441.6775136
1030,941093873.736875
2,5, 1, 5, 0,23, 0.00,60.00,Thursday
198,104030720.8387568
1030,941093873.736875
2,5, 1, 5, 0,24, 0.00,60.00,Thursday
198,52015360.4193784
1030,941093873.736875
2,6, 1, 6, 0, 1, 0.00,60.00,Friday
198,41707937.258317545
1030,836730825.2177298
2,6, 1, 6, 0, 2, 0.00,60.00,Friday
198,36464788.34797145
1030,836730825.2177298
2,6, 1, 6, 0, 3, 0.00,60.00,Friday
198,36464788.34797145
1030,836730825.2177298
2,6, 1, 6, 0, 4, 0.00,60.00,Friday
198,36464788.34797145
1030,836730825.2177298
2,6, 1, 6, 0, 5, 0.00,60.00,Friday
198,36464788.34797145
1030,836730825.2177298
2,6, 1, 6, 0, 6, 0.00,60.00,Friday
198,37975250.63110626
1030,836730825.2177298
2,6, 1, 6, 0, 7, 0.00,60.00,Friday
198,87445560.3280437
1030,941093873.736875
2,6, 1, 6, 0, 8, 0.00,60.00,Friday
198,296824775.1277878
1030,941093873.736875
2,6, 1, 6, 0, 9, 0.00,60.00,Friday
198,808381966.4676796
1030,1524590982.1435688
2,6, 1, 6, 0,10, 0.00,60.00,Friday
198,805214287.1996835
1030,1524590982.1435688
2,6, 1, 6, 0,11, 0.00,60.00,Friday
198,805214287.1996835
1030,1524590982.1435688
2,6, 1, 6, 0,12, 0.00,60.00,Friday
198,805214287.1996835
1030,1524590982.1435688
2,6, 1, 6, 0,13, 0.00,60.00,Friday
198,805214287.1996835
1030,1407891560.4622302
2,6, 1, 6, 0,14, 0.00,60.00,Friday
198,805214287.1996835
1030,1524590982.1435688
2,6, 1, 6, 0,15, 0.00,60.00,Friday
198,805214287.1996835
1030,1524590982.1435688
2,6, 1, 6, 0,16, 0.00,60.00,Friday
198,815101605.9270538
1030,1524590982.1435688
2,6, 1, 6, 0,17, 0.00,60.00,Friday
198,897457741.1636697
1030,1524590982.1435688
2,6, 1, 6, 0,18, 0.00,60.00,Friday
198,520153604.193784
1030,1057793295.4182141
2,6, 1, 6, 0,19, 0.00,60.00,Friday
198,312092162.51627046
1030,941093873.736875
2,6, 1, 6, 0,20, 0.00,60.00,Friday
198,312092162.51627046
1030,941093873.736875
2,6, 1, 6, 0,21, 0.00,60.00,Friday
198,208061441.6775136
1030,941093873.736875
2,6, 1, 6, 0,22, 0.00,60.00,Friday
198,208061441.6775136
1030,941093873.736875
2,6, 1, 6, 0,23, 0.00,60.00,Friday
198,104030720.8387568
1030,941093873.736875
2,6, 1, 6, 0,24, 0.00,60.00,Friday
198,52015360.4193784
1030,941093873.736875
2,7, 1, 7, 0, 1, 0.00,60.00,Saturday
198,41707937.258317545
1030,746122165.6661774
2,7, 1, 7, 0, 2, 0.00,60.00,Saturday
198,36464788.34797145
1030,746122165.6661774
2,7, 1, 7, 0, 3, 0.00,60.00,Saturday
198,36464788.34797145
1030,746122165.6661774
2,7, 1, 7, 0, 4, 0.00,60.00,Saturday
198,36464788.34797145
1030,746122165.6661774
2,7, 1, 7, 0, 5, 0.00,60.00,Saturday
198,36464788.34797145
1030,746122165.6661774
2,7, 1, 7, 0, 6, 0.00,60.00,Saturday
198,36464788.34797145
1030,746122165.6661774
2,7, 1, 7, 0, 7, 0.00,60.00,Saturday
198,87445560.3280437
1030,941093873.736875
2,7, 1, 7, 0, 8, 0.00,60.00,Saturday
198,98883638.29695751
1030,941093873.736875
2,7, 1, 7, 0, 9, 0.00,60.00,Saturday
198,269398583.35815656
1030,1057793295.4182141
2,7, 1, 7, 0,10, 0.00,60.00,Saturday
198,268404762.39989462
1030,1057793295.4182141
2,7, 1, 7, 0,11, 0.00,60.00,Saturday
198,268404762.39989462
1030,1057793295.4182141
2,7, 1, 7, 0,12, 0.00,60.00,Saturday
198,268404762.39989462
1030,1057793295.4182141
2,7, 1, 7, 0,13, 0.00,60.00,Saturday
198,134202381.19994731
1030,882744162.8962058
2,7, 1, 7, 0,14, 0.00,60.00,Saturday
198,134202381.19994731
1030,882744162.8962058
2,7, 1, 7, 0,15, 0.00,60.00,Saturday
198,134202381.19994731
1030,882744162.8962058
2,7, 1, 7, 0,16, 0.00,60.00,Saturday
198,136691926.27929765
1030,882744162.8962058
2,7, 1, 7, 0,17, 0.00,60.00,Saturday
198,149151820.0942437
1030,882744162.8962058
2,7, 1, 7, 0,18, 0.00,60.00,Saturday
198,52015360.4193784
1030,824394452.0555365
2,7, 1, 7, 0,19, 0.00,60.00,Saturday
198,52015360.4193784
1030,824394452.0555365
2,7, 1, 7, 0,20, 0.00,60.00,Saturday
198,41707937.258317545
1030,746122165.6661774
2,7, 1, 7, 0,21, 0.00,60.00,Saturday
198,36464788.34797145
1030,746122165.6661774
2,7, 1, 7, 0,22, 0.00,60.00,Saturday
198,36464788.34797145
1030,746122165.6661774
2,7, 1, 7, 0,23, 0.00,60.00,Saturday
198,36464788.34797145
1030,746122165.6661774
2,7, 1, 7, 0,24, 0.00,60.00,Saturday
198,36464788.34797145
1030,746122165.6661774
2,8, 1, 8, 0, 1, 0.00,60.00,Sunday
198,36464788.34797145
1030,746122165.6661774
2,8, 1, 8, 0, 2, 0.00,60.00,Sunday
198,36464788.34797145
1030,746122165.6661774
2,8, 1, 8, 0, 3, 0.00,60.00,Sunday
198,36464788.34797145
1030,746122165.6661774
2,8, 1, 8, 0, 4, 0.00,60.00,Sunday
198,36464788.34797145
1030,746122165.6661774
2,8, 1, 8, 0, 5, 0.00,60.00,Sunday
198,36464788.34797145
1030,746122165.6661774
2,8, 1, 8, 0, 6, 0.00,60.00,Sunday
198,36464788.34797145
1030,746122165.6661774
2,8, 1, 8, 0, 7, 0.00,60.00,Sunday
198,48092070.92212643
1030,824394452.0555365
2,8, 1, 8, 0, 8, 0.00,60.00,Sunday
198,48879425.95310166
1030,824394452.0555365
2,8, 1, 8, 0, 9, 0.00,60.00,Sunday
198,44734127.06664909
1030,824394452.0555365
2,8, 1, 8, 0,10, 0.00,60.00,Sunday
198,44764250.05037906
1030,824394452.0555365
2,8, 1, 8, 0,11, 0.00,60.00,Sunday
198,45016724.73103144
1030,824394452.0555365
2,8, 1, 8, 0,12, 0.00,60.00,Sunday
198,44737073.28438762
1030,824394452.0555365
2,8, 1, 8, 0,13, 0.00,60.00,Sunday
198,44734127.06664909
1030,824394452.0555365
2,8, 1, 8, 0,14, 0.00,60.00,Sunday
198,44734127.06664909
1030,824394452.0555365
2,8, 1, 8, 0,15, 0.00,60.00,Sunday
198,44734127.06664909
1030,824394452.0555365
2,8, 1, 8, 0,16, 0.00,60.00,Sunday
198,45118521.95078067
1030,824394452.0555365
2,8, 1, 8, 0,17, 0.00,60.00,Sunday
198,49584144.12307866
1030,824394452.0555365
2,8, 1, 8, 0,18, 0.00,60.00,Sunday
198,52015360.4193784
1030,824394452.0555365
2,8, 1, 8, 0,19, 0.00,60.00,Sunday
198,41707937.258317545
1030,746122165.6661774
2,8, 1, 8, 0,20, 0.00,60.00,Sunday
198,36464788.34797145
1030,746122165.6661774
2,8, 1, 8, 0,21, 0.00,60.00,Sunday
198,36464788.34797145
1030,746122165.6661774
2,8, 1, 8, 0,22, 0.00,60.00,Sunday
198,36464788.34797145
1030,746122165.6661774
2,8, 1, 8, 0,23, 0.00,60.00,Sunday
198,36464788.34797145
1030,746122165.6661774
2,8, 1, 8, 0,24, 0.00,60.00,Sunday
198,36464788.34797145
1030,746122165.6661774
2,9, 1, 9, 0, 1, 0.00,60.00,Monday
198,36464788.34797145
1030,836730825.2177298
2,9, 1, 9, 0, 2, 0.00,60.00,Monday
198,36464788.34797145
1030,836730825.2177298
2,9, 1, 9, 0, 3, 0.00,60.00,Monday
198,36464788.34797145
1030,836730825.2177298
2,9, 1, 9, 0, 4, 0.00,60.00,Monday
198,36464788.34797145
1030,836730825.2177298
2,9, 1, 9, 0, 5, 0.00,60.00,Monday
198,36464788.34797145
1030,836730825.2177298
2,9, 1, 9, 0, 6, 0.00,60.00,Monday
198,37975250.63110626
1030,836730825.2177298
2,9, 1, 9, 0, 7, 0.00,60.00,Monday
198,87445560.3280437
1030,941093873.736875
2,9, 1, 9, 0, 8, 0.00,60.00,Monday
198,295996046.92752576
1030,941093873.736875
2,9, 1, 9, 0, 9, 0.00,60.00,Monday
198,806704922.034373
1030,1524590982.1435688
2,9, 1, 9, 0,10, 0.00,60.00,Monday
198,805214287.1996835
1030,1524590982.1435688
2,9, 1, 9, 0,11, 0.00,60.00,Monday
198,805214287.1996835
1030,1524590982.1435688
2,9, 1, 9, 0,12, 0.00,60.00,Monday
198,805214287.1996835
1030,1524590982.1435688
2,9, 1, 9, 0,13, 0.00,60.00,Monday
198,805214287.1996835
1030,1407891560.4622302
2,9, 1, 9, 0,14, 0.00,60.00,Monday
198,805214287.1996835
1030,1524590982.1435688
2,9, 1, 9, 0,15, 0.00,60.00,Monday
198,805297166.1894192
1030,1524590982.1435688
2,9, 1, 9, 0,16, 0.00,60.00,Monday
198,819677180.9478772
1030,1524590982.1435688
2,9, 1, 9, 0,17, 0.00,60.00,Monday
198,892998035.5840123
1030,1524590982.1435688
2,9, 1, 9, 0,18, 0.00,60.00,Monday
198,520153604.193784
1030,1057793295.4182141
2,9, 1, 9, 0,19, 0.00,60.00,Monday
198,312092162.51627046
1030,941093873.736875
2,9, 1, 9, 0,20, 0.00,60.00,Monday
198,312092162.51627046
1030,941093873.736875
2,9, 1, 9, 0,21, 0.00,60.00,Monday
198,208061441.6775136
1030,941093873.736875
2,9, 1, 9, 0,22, 0.00,60.00,Monday
198,208061441.6775136
1030,941093873.736875
2,9, 1, 9, 0,23, 0.00,60.00,Monday
198,104030720.8387568
1030,941093873.736875
2,9, 1, 9, 0,24, 0.00,60.00,Monday
198,52015360.4193784
1030,941093873.736875
2,10, 1,10, 0, 1, 0.00,60.00,Tuesday
198,41707937.258317545
1030,836730825.2177298
2,10, 1,10, 0, 2, 0.00,60.00,Tuesday
198,36464788.34797145
1030,836730825.2177298
2,10, 1,10, 0, 3, 0.00,60.00,Tuesday
198,36464788.34797145
1030,836730825.2177298
2,10, 1,10, 0, 4, 0.00,60.00,Tuesday
198,36464788.34797145
1030,836730825.2177298
2,10, 1,10, 0, 5, 0.00,60.00,Tuesday
198,36464788.34797145
1030,836730825.2177298
2,10, 1,10, 0, 6, 0.00,60.00,Tuesday
198,37975250.63110626
1030,836730825.2177298
2,10, 1,10, 0, 7, 0.00,60.00,Tuesday
198,87445560.3280437
1030,941093873.736875
2,10, 1,10, 0, 8, 0.00,60.00,Tuesday
198,296071377.34437644
1030,941093873.736875
2,10, 1,10, 0, 9, 0.00,60.00,Tuesday
198,806761422.2531183
1030,1524590982.1435688
2,10, 1,10, 0,10, 0.00,60.00,Tuesday
198,805214287.1996835
1030,1524590982.1435688
2,10, 1,10, 0,11, 0.00,60.00,Tuesday
198,805214287.1996835
1030,1524590982.1435688
2,10, 1,10, 0,12, 0.00,60.00,Tuesday
198,805214287.1996835
1030,1524590982.1435688
2,10, 1,10, 0,13, 0.00,60.00,Tuesday
198,805214287.1996835
1030,1407891560.4622302
2,10, 1,10, 0,14, 0.00,60.00,Tuesday
198,805214287.1996835
1030,1524590982.1435688
2,10, 1,10, 0,15, 0.00,60.00,Tuesday
198,805260194.8769253
1030,1524590982.1435688
2,10, 1,10, 0,16, 0.00,60.00,Tuesday
198,819061451.900283
1030,1524590982.1435688
2,10, 1,10, 0,17, 0.00,60.00,Tuesday
198,891527582.6333027
1030,1524590982.1435688
2,10, 1,10, 0,18, 0.00,60.00,Tuesday
198,520153604.193784
1030,1057793295.4182141
2,10, 1,10, 0,19, 0.00,60.00,Tuesday
198,312092162.51627046
1030,941093873.736875
2,10, 1,10, 0,20, 0.00,60.00,Tuesday
198,312092162.51627046
1030,941093873.736875
2,10, 1,10, 0,21, 0.00,60.00,Tuesday
198,208061441.6775136
1030,941093873.736875
2,10, 1,10, 0,22, 0.00,60.00,Tuesday
198,208061441.6775136
1030,941093873.736875
2,10, 1,10, 0,23, 0.00,60.00,Tuesday
198,104030720.8387568
1030,941093873.736875
2,10, 1,10, 0,24, 0.00,60.00,Tuesday
198,52015360.4193784
1030,941093873.736875
2,11, 1,11, 0, 1, 0.00,60.00,Wednesday
198,41707937.258317545
1030,836730825.2177298
2,11, 1,11, 0, 2, 0.00,60.00,Wednesday
198,36464788.34797145
1030,836730825.2177298
2,11, 1,11, 0, 3, 0.00,60.00,Wednesday
198,36464788.34797145
1030,836730825.2177298
2,11, 1,11, 0, 4, 0.00,60.00,Wednesday
198,36464788.34797145
1030,836730825.2177298
2,11, 1,11, 0, 5, 0.00,60.00,Wednesday
198,36464788.34797145
1030,836730825.2177298
2,11, 1,11, 0, 6, 0.00,60.00,Wednesday
198,37975250.63110626
1030,836730825.2177298
2,11, 1,11, 0, 7, 0.00,60.00,Wednesday
198,87445560.3280437
1030,941093873.736875
2,11, 1,11, 0, 8, 0.00,60.00,Wednesday
198,293529432.07055426
1030,941093873.736875
2,11, 1,11, 0, 9, 0.00,60.00,Wednesday
198,805214287.1996835
1030,1524590982.1435688
2,11, 1,11, 0,10, 0.00,60.00,Wednesday
198,805214287.1996835
1030,1524590982.1435688
2,11, 1,11, 0,11, 0.00,60.00,Wednesday
198,805214287.1996835
1030,1524590982.1435688
2,11, 1,11, 0,12, 0.00,60.00,Wednesday
198,805214287.1996835
1030,1524590982.1435688
2,11, 1,11, 0,13, 0.00,60.00,Wednesday
198,805214287.1996835
1030,1407891560.4622302
2,11, 1,11, 0,14, 0.00,60.00,Wednesday
198,805214287.1996835
1030,1524590982.1435688
2,11, 1,11, 0,15, 0.00,60.00,Wednesday
198,805214287.1996835
1030,1524590982.1435688
2,11, 1,11, 0,16, 0.00,60.00,Wednesday
198,808907072.2308599
1030,1524590982.1435688
2,11, 1,11, 0,17, 0.00,60.00,Wednesday
198,909183770.0136799
1030,1524590982.1435688
2,11, 1,11, 0,18, 0.00,60.00,Wednesday
198,520153604.193784
1030,1057793295.4182141
2,11, 1,11, 0,19, 0.00,60.00,Wednesday
198,312092162.51627046
1030,941093873.736875
2,11, 1,11, 0,20, 0.00,60.00,Wednesday
198,312092162.51627046
1030,941093873.736875
2,11, 1,11, 0,21, 0.00,60.00,Wednesday
198,208061441.6775136
1030,941093873.736875
2,11, 1,11, 0,22, 0.00,60.00,Wednesday
198,208061441.6775136
1030,941093873.736875
2,11, 1,11, 0,23, 0.00,60.00,Wednesday
198,104030720.8387568
1030,941093873.736875
2,11, 1,11, 0,24, 0.00,60.00,Wednesday
198,52015360.4193784
1030,941093873.736875
2,12, 1,12, 0, 1, 0.00,60.00,Thursday
198,41707937.258317545
1030,836730825.2177298
2,12, 1,12, 0, 2, 0.00,60.00,Thursday
198,36464788.34797145
1030,836730825.2177298
2,12, 1,12, 0, 3, 0.00,60.00,Thursday
198,36464788.34797145
1030,836730825.2177298
2,12, 1,12, 0, 4, 0.00,60.00,Thursday
198,36464788.34797145
1030,836730825.2177298
2,12, 1,12, 0, 5, 0.00,60.00,Thursday
198,36464788.34797145
1030,836730825.2177298
2,12, 1,12, 0, 6, 0.00,60.00,Thursday
198,37975250.63110626
1030,836730825.2177298
2,12, 1,12, 0, 7, 0.00,60.00,Thursday
198,87445560.3280437
1030,941093873.736875
2,12, 1,12, 0, 8, 0.00,60.00,Thursday
198,297251720.3093923
1030,941093873.736875
2,12, 1,12, 0, 9, 0.00,60.00,Thursday
198,811368000.9952075
1030,1524590982.1435688
2,12, 1,12, 0,10, 0.00,60.00,Thursday
198,814094140.8461723
1030,1524590982.1435688
2,12, 1,12, 0,11, 0.00,60.00,Thursday
198,805262615.2520158
1030,1524590982.1435688
2,12, 1,12, 0,12, 0.00,60.00,Thursday
198,805214287.1996835
1030,1524590982.1435688
2,12, 1,12, 0,13, 0.00,60.00,Thursday
198,805214287.1996835
1030,1407891560.4622302
2,12, 1,12, 0,14, 0.00,60.00,Thursday
198,805214287.1996835
1030,1524590982.1435688
2,12, 1,12, 0,15, 0.00,60.00,Thursday
198,805214287.1996835
1030,1524590982.1435688
2,12, 1,12, 0,16, 0.00,60.00,Thursday
198,808013509.4467406
1030,1524590982.1435688
2,12, 1,12, 0,17, 0.00,60.00,Thursday
198,884459616.0620033
1030,1524590982.1435688
2,12, 1,12, 0,18, 0.00,60.00,Thursday
198,520153604.193784
1030,1057793295.4182141
2,12, 1,12, 0,19, 0.00,60.00,Thursday
198,312092162.51627046
1030,941093873.736875
2,12, 1,12, 0,20, 0.00,60.00,Thursday
198,312092162.51627046
1030,941093873.736875
2,12, 1,12, 0,21, 0.00,60.00,Thursday
198,208061441.6775136
1030,941093873.736875
2,12, 1,12, 0,22, 0.00,60.00,Thursday
198,208061441.6775136
1030,941093873.736875
2,12, 1,12, 0,23, 0.00,60.00,Thursday
198,104030720.8387568
1030,941093873.736875
2,12, 1,12, 0,24, 0.00,60.00,Thursday
198,52015360.4193784
1030,941093873.736875
2,13, 1,13, 0, 1, 0.00,60.00,Friday
198,41707937.258317545
1030,836730825.2177298
2,13, 1,13, 0, 2, 0.00,60.00,Friday
198,36464788.34797145
1030,836730825.2177298
2,13, 1,13, 0, 3, 0.00,60.00,Friday
198,36464788.34797145
1030,836730825.2177298
2,13, 1,13, 0, 4, 0.00,60.00,Friday
198,36464788.34797145
1030,836730825.2177298
2,13, 1,13, 0, 5, 0.00,60.00,Friday
198,36464788.34797145
1030,836730825.2177298
2,13, 1,13, 0, 6, 0.00,60.00,Friday
198,37975250.63110626
1030,836730825.2177298
2,13, 1,13, 0, 7, 0.00,60.00,Friday
198,87445560.3280437
1030,941093873.736875
2,13, 1,13, 0, 8, 0.00,60.00,Friday
198,292981447.35184044
1030,941093873.736875
2,13, 1,13, 0, 9, 0.00,60.00,Friday
198,805214287.1996835
1030,1524590982.1435688
2,13, 1,13, 0,10, 0.00,60.00,Friday
198,816204249.6391039
1030,1524590982.1435688
2,13, 1,13, 0,11, 0.00,60.00,Friday
198,808385974.3398548
1030,1524590982.1435688
2,13, 1,13, 0,12, 0.00,60.00,Friday
198,805214287.1996835
1030,1524590982.1435688
2,13, 1,13, 0,13, 0.00,60.00,Friday
198,805214287.1996835
1030,1407891560.4622302
2,13, 1,13, 0,14, 0.00,60.00,Friday
198,805214287.1996835
1030,1524590982.1435688
2,13, 1,13, 0,15, 0.00,60.00,Friday
198,805214287.1996835
1030,1524590982.1435688
2,13, 1,13, 0,16, 0.00,60.00,Friday
198,806597797.0860323
1030,1524590982.1435688
2,13, 1,13, 0,17, 0.00,60.00,Friday
198,887966770.6595374
1030,1524590982.1435688
2,13, 1,13, 0,18, 0.00,60.00,Friday
198,520153604.193784
1030,1057793295.4182141
2,13, 1,13, 0,19, 0.00,60.00,Friday
198,312092162.51627046
1030,941093873.736875
2,13, 1,13, 0,20, 0.00,60.00,Friday
198,312092162.51627046
1030,941093873.736875
2,13, 1,13, 0,21, 0.00,60.00,Friday
198,208061441.6775136
1030,941093873.736875
2,13, 1,13, 0,22, 0.00,60.00,Friday
198,208061441.6775136
1030,941093873.736875
2,13, 1,13, 0,23, 0.00,60.00,Friday
198,104030720.8387568
1030,941093873.736875
2,13, 1,13, 0,24, 0.00,60.00,Friday
198,52015360.4193784
1030,941093873.736875
2,14, 1,14, 0, 1, 0.00,60.00,Saturday
198,41707937.258317545
1030,746122165.6661774
2,14, 1,14, 0, 2, 0.00,60.00,Saturday
198,36464788.34797145
1030,746122165.6661774
2,14, 1,14, 0, 3, 0.00,60.00,Saturday
198,36464788.34797145
1030,746122165.6661774
2,14, 1,14, 0, 4, 0.00,60.00,Saturday
198,36464788.34797145
1030,746122165.6661774
2,14, 1,14, 0, 5, 0.00,60.00,Saturday
198,36464788.34797145
1030,746122165.6661774
2,14, 1,14, 0, 6, 0.00,60.00,Saturday
198,36464788.34797145
1030,746122165.6661774
2,14, 1,14, 0, 7, 0.00,60.00,Saturday
198,87445560.3280437
1030,941093873.736875
2,14, 1,14, 0, 8, 0.00,60.00,Saturday
198,97593005.88018623
1030,941093873.736875
2,14, 1,14, 0, 9, 0.00,60.00,Saturday
198,268404762.39989462
1030,1057793295.4182141
2,14, 1,14, 0,10, 0.00,60.00,Saturday
198,268404762.39989462
1030,1057793295.4182141
2,14, 1,14, 0,11, 0.00,60.00,Saturday
198,268404762.39989462
1030,1057793295.4182141
2,14, 1,14, 0,12, 0.00,60.00,Saturday
198,268404762.39989462
1030,1057793295.4182141
2,14, 1,14, 0,13, 0.00,60.00,Saturday
198,134329373.74649274
1030,882744162.8962058
2,14, 1,14, 0,14, 0.00,60.00,Saturday
198,134202381.19994731
1030,882744162.8962058
2,14, 1,14, 0,15, 0.00,60.00,Saturday
198,134202381.19994731
1030,882744162.8962058
2,14, 1,14, 0,16, 0.00,60.00,Saturday
198,135503228.0499478
1030,882744162.8962058
2,14, 1,14, 0,17, 0.00,60.00,Saturday
198,148202948.4793488
1030,882744162.8962058
2,14, 1,14, 0,18, 0.00,60.00,Saturday
198,52015360.4193784
1030,824394452.0555365
2,14, 1,14, 0,19, 0.00,60.00,Saturday
198,52015360.4193784
1030,824394452.0555365
2,14, 1,14, 0,20, 0.00,60.00,Saturday
198,41707937.258317545
1030,746122165.6661774
2,14, 1,14, 0,21, 0.00,60.00,Saturday
198,36464788.34797145
1030,746122165.6661774
2,14, 1,14, 0,22, 0.00,60.00,Saturday
198,36464788.34797145
1030,746122165.6661774
2,14, 1,14, 0,23, 0.00,60.00,Saturday
198,36464788.34797145
1030,746122165.6661774
2,14, 1,14, 0,24, 0.00,60.00,Saturday
198,36464788.34797145
1030,746122165.6661774
2,15, 1,15, 0, 1, 0.00,60.00,Sunday
198,36464788.34797145
1030,746122165.6661774
2,15, 1,15, 0, 2, 0.00,60.00,Sunday
198,36464788.34797145
1030,746122165.6661774
2,15, 1,15, 0, 3, 0.00,60.00,Sunday
198,36464788.34797145
1030,746122165.6661774
2,15, 1,15, 0, 4, 0.00,60.00,Sunday
198,36464788.34797145
1030,746122165.6661774
2,15, 1,15, 0, 5, 0.00,60.00,Sunday
198,36464788.34797145
1030,746122165.6661774
2,15, 1,15, 0, 6, 0.00,60.00,Sunday
198,36464788.34797145
1030,746122165.6661774
2,15, 1,15, 0, 7, 0.00,60.00,Sunday
198,48092070.92212643
1030,824394452.0555365
2,15, 1,15, 0, 8, 0.00,60.00,Sunday
198,49313703.24736874
1030,824394452.0555365
2,15, 1,15, 0, 9, 0.00,60.00,Sunday
198,44819224.21574843
1030,824394452.0555365
2,15, 1,15, 0,10, 0.00,60.00,Sunday
198,44734127.06664909
1030,824394452.0555365
2,15, 1,15, 0,11, 0.00,60.00,Sunday
198,44734127.06664909
1030,824394452.0555365
2,15, 1,15, 0,12, 0.00,60.00,Sunday
198,44734127.06664909
1030,824394452.0555365
2,15, 1,15, 0,13, 0.00,60.00,Sunday
198,44734127.06664909
1030,824394452.0555365
2,15, 1,15, 0,14, 0.00,60.00,Sunday
198,44734127.06664909
1030,824394452.0555365
2,15, 1,15, 0,15, 0.00,60.00,Sunday
198,44734127.06664909
1030,824394452.0555365
2,15, 1,15, 0,16, 0.00,60.00,Sunday
198,45158852.43712683
1030,824394452.0555365
2,15, 1,15, 0,17, 0.00,60.00,Sunday
198,49373414.05963774
1030,824394452.0555365
2,15, 1,15, 0,18, 0.00,60.00,Sunday
198,52015360.4193784
1030,824394452.0555365
2,15, 1,15, 0,19, 0.00,60.00,Sunday
198,41707937.258317545
1030,746122165.6661774
2,15, 1,15, 0,20, 0.00,60.00,Sunday
198,36464788.34797145
1030,746122165.6661774
2,15, 1,15, 0,21, 0.00,60.00,Sunday
198,36464788.34797145
1030,746122165.6661774
2,15, 1,15, 0,22, 0.00,60.00,Sunday
198,36464788.34797145
1030,746122165.6661774